<?xml version="1.0" encoding="UTF-8"?>

<!-- generated on Thursday 10 June 2021 04:24:48 PM IST by Eclipse SUMO GUI Version 1.8.0
<configuration xmlns:xsi="http://www.w3.org/2001/XMLSchema-instance" xsi:noNamespaceSchemaLocation="http://sumo.dlr.de/xsd/sumoConfiguration.xsd">

    <input>
        <net-file value="data/cross.net.xml"/>
        <route-files value="data/cross.rou.xml"/>
    </input>

    <output>
        <fcd-output value="fcd_output.xml"/>
    </output>

    <time>
        <begin value="0"/>
        <step-length value="0.1"/>
    </time>

    <report>
        <verbose value="true"/>
        <no-step-log value="true"/>
    </report>

    <traci_server>
        <remote-port value="8873"/>
    </traci_server>

    <gui_only>
        <tracker-interval value="0.1"/>
    </gui_only>

</configuration>
-->

<fcd-export xmlns:xsi="http://www.w3.org/2001/XMLSchema-instance" xsi:noNamespaceSchemaLocation="http://sumo.dlr.de/xsd/fcd_file.xsd">
    <timestep time="0.00">
        <vehicle id="EtoN_8" x="225.90" y="123.25" angle="270.00" type="type1" speed="12.25" pos="3.10" lane="2i_0" slope="0.00"/>
        <vehicle id="EtoS_4" x="225.90" y="116.25" angle="270.00" type="type1" speed="6.02" pos="3.10" lane="2i_2" slope="0.00"/>
        <vehicle id="EtoW_1" x="225.90" y="119.75" angle="270.00" type="type1" speed="7.91" pos="3.10" lane="2i_1" slope="0.00"/>
        <vehicle id="NtoE_7" x="112.75" y="225.90" angle="180.00" type="type1" speed="16.67" pos="3.10" lane="4i_2" slope="0.00"/>
        <vehicle id="NtoS_2" x="109.25" y="225.90" angle="180.00" type="type2" speed="16.64" pos="3.10" lane="4i_1" slope="0.00"/>
        <vehicle id="NtoW_10" x="105.75" y="225.90" angle="180.00" type="type1" speed="16.55" pos="3.10" lane="4i_0" slope="0.00"/>
        <vehicle id="StoE_11" x="123.25" y="3.10" angle="0.00" type="type1" speed="14.90" pos="3.10" lane="3i_0" slope="0.00"/>
        <vehicle id="StoN_3" x="119.75" y="3.10" angle="0.00" type="type1" speed="8.81" pos="3.10" lane="3i_1" slope="0.00"/>
        <vehicle id="StoW_5" x="116.25" y="3.10" angle="0.00" type="type1" speed="14.90" pos="3.10" lane="3i_2" slope="0.00"/>
        <vehicle id="WtoE_0" x="3.10" y="109.25" angle="90.00" type="type1" speed="8.19" pos="3.10" lane="1i_1" slope="0.00"/>
        <vehicle id="WtoN_6" x="3.10" y="112.75" angle="90.00" type="type1" speed="8.83" pos="3.10" lane="1i_2" slope="0.00"/>
        <vehicle id="WtoS_9" x="3.10" y="105.75" angle="90.00" type="type1" speed="12.62" pos="3.10" lane="1i_0" slope="0.00"/>
    </timestep>
    <timestep time="0.10">
        <vehicle id="EtoN_8" x="224.65" y="123.25" angle="270.00" type="type1" speed="12.54" pos="4.35" lane="2i_0" slope="0.00"/>
        <vehicle id="EtoS_4" x="225.27" y="116.25" angle="270.00" type="type1" speed="6.32" pos="3.73" lane="2i_2" slope="0.00"/>
        <vehicle id="EtoW_1" x="225.08" y="119.75" angle="270.00" type="type1" speed="8.21" pos="3.92" lane="2i_1" slope="0.00"/>
        <vehicle id="NtoE_7" x="112.75" y="224.20" angle="180.00" type="type1" speed="16.99" pos="4.80" lane="4i_2" slope="0.00"/>
        <vehicle id="NtoS_2" x="109.25" y="224.27" angle="180.00" type="type2" speed="16.34" pos="4.73" lane="4i_1" slope="0.00"/>
        <vehicle id="NtoW_10" x="105.75" y="224.22" angle="180.00" type="type1" speed="16.77" pos="4.78" lane="4i_0" slope="0.00"/>
        <vehicle id="StoE_11" x="123.25" y="4.62" angle="0.00" type="type1" speed="15.20" pos="4.62" lane="3i_0" slope="0.00"/>
        <vehicle id="StoN_3" x="119.75" y="4.01" angle="0.00" type="type1" speed="9.11" pos="4.01" lane="3i_1" slope="0.00"/>
        <vehicle id="StoW_5" x="116.25" y="4.56" angle="0.00" type="type1" speed="14.61" pos="4.56" lane="3i_2" slope="0.00"/>
        <vehicle id="WtoE_0" x="3.95" y="109.25" angle="90.00" type="type1" speed="8.50" pos="3.95" lane="1i_1" slope="0.00"/>
        <vehicle id="WtoN_6" x="4.01" y="112.75" angle="90.00" type="type1" speed="9.08" pos="4.01" lane="1i_2" slope="0.00"/>
        <vehicle id="WtoS_9" x="4.39" y="105.75" angle="90.00" type="type1" speed="12.91" pos="4.39" lane="1i_0" slope="0.00"/>
    </timestep>
    <timestep time="0.20">
        <vehicle id="EtoN_8" x="223.36" y="123.25" angle="270.00" type="type1" speed="12.84" pos="5.64" lane="2i_0" slope="0.00"/>
        <vehicle id="EtoS_4" x="224.61" y="116.25" angle="270.00" type="type1" speed="6.61" pos="4.39" lane="2i_2" slope="0.00"/>
        <vehicle id="EtoW_1" x="224.23" y="119.75" angle="270.00" type="type1" speed="8.52" pos="4.77" lane="2i_1" slope="0.00"/>
        <vehicle id="NtoE_7" x="112.75" y="222.50" angle="180.00" type="type1" speed="16.99" pos="6.50" lane="4i_2" slope="0.00"/>
        <vehicle id="NtoS_2" x="109.25" y="222.66" angle="180.00" type="type2" speed="16.04" pos="6.34" lane="4i_1" slope="0.00"/>
        <vehicle id="NtoW_10" x="105.75" y="222.52" angle="180.00" type="type1" speed="17.00" pos="6.48" lane="4i_0" slope="0.00"/>
        <vehicle id="StoE_11" x="123.25" y="6.17" angle="0.00" type="type1" speed="15.50" pos="6.17" lane="3i_0" slope="0.00"/>
        <vehicle id="StoN_3" x="119.75" y="4.95" angle="0.00" type="type1" speed="9.41" pos="4.95" lane="3i_1" slope="0.00"/>
        <vehicle id="StoW_5" x="116.25" y="5.99" angle="0.00" type="type1" speed="14.31" pos="5.99" lane="3i_2" slope="0.00"/>
        <vehicle id="WtoE_0" x="4.83" y="109.25" angle="90.00" type="type1" speed="8.80" pos="4.83" lane="1i_1" slope="0.00"/>
        <vehicle id="WtoN_6" x="4.94" y="112.75" angle="90.00" type="type1" speed="9.33" pos="4.94" lane="1i_2" slope="0.00"/>
        <vehicle id="WtoS_9" x="5.71" y="105.75" angle="90.00" type="type1" speed="13.20" pos="5.71" lane="1i_0" slope="0.00"/>
    </timestep>
    <timestep time="0.30">
        <vehicle id="EtoN_8" x="222.05" y="123.25" angle="270.00" type="type1" speed="13.14" pos="6.95" lane="2i_0" slope="0.00"/>
        <vehicle id="EtoS_4" x="223.92" y="116.25" angle="270.00" type="type1" speed="6.91" pos="5.08" lane="2i_2" slope="0.00"/>
        <vehicle id="EtoW_1" x="223.35" y="119.75" angle="270.00" type="type1" speed="8.82" pos="5.65" lane="2i_1" slope="0.00"/>
        <vehicle id="NtoE_7" x="112.75" y="220.80" angle="180.00" type="type1" speed="16.99" pos="8.20" lane="4i_2" slope="0.00"/>
        <vehicle id="NtoS_2" x="109.25" y="221.09" angle="180.00" type="type2" speed="15.74" pos="7.91" lane="4i_1" slope="0.00"/>
        <vehicle id="NtoW_10" x="105.75" y="220.82" angle="180.00" type="type1" speed="17.00" pos="8.18" lane="4i_0" slope="0.00"/>
        <vehicle id="StoE_11" x="123.25" y="7.75" angle="0.00" type="type1" speed="15.80" pos="7.75" lane="3i_0" slope="0.00"/>
        <vehicle id="StoN_3" x="119.75" y="5.92" angle="0.00" type="type1" speed="9.71" pos="5.92" lane="3i_1" slope="0.00"/>
        <vehicle id="StoW_5" x="116.25" y="7.39" angle="0.00" type="type1" speed="14.01" pos="7.39" lane="3i_2" slope="0.00"/>
        <vehicle id="WtoE_0" x="5.74" y="109.25" angle="90.00" type="type1" speed="9.11" pos="5.74" lane="1i_1" slope="0.00"/>
        <vehicle id="WtoN_6" x="5.88" y="112.75" angle="90.00" type="type1" speed="9.33" pos="5.88" lane="1i_2" slope="0.00"/>
        <vehicle id="WtoS_9" x="7.06" y="105.75" angle="90.00" type="type1" speed="13.50" pos="7.06" lane="1i_0" slope="0.00"/>
    </timestep>
    <timestep time="0.40">
        <vehicle id="EtoN_8" x="220.70" y="123.25" angle="270.00" type="type1" speed="13.43" pos="8.30" lane="2i_0" slope="0.00"/>
        <vehicle id="EtoS_4" x="223.20" y="116.25" angle="270.00" type="type1" speed="7.20" pos="5.80" lane="2i_2" slope="0.00"/>
        <vehicle id="EtoW_1" x="222.43" y="119.75" angle="270.00" type="type1" speed="9.12" pos="6.57" lane="2i_1" slope="0.00"/>
        <vehicle id="NtoE_7" x="112.75" y="219.10" angle="180.00" type="type1" speed="16.99" pos="9.90" lane="4i_2" slope="0.00"/>
        <vehicle id="NtoS_2" x="109.25" y="219.54" angle="180.00" type="type2" speed="15.44" pos="9.46" lane="4i_1" slope="0.00"/>
        <vehicle id="NtoW_10" x="105.75" y="219.12" angle="180.00" type="type1" speed="17.00" pos="9.88" lane="4i_0" slope="0.00"/>
        <vehicle id="StoE_11" x="123.25" y="9.36" angle="0.00" type="type1" speed="16.10" pos="9.36" lane="3i_0" slope="0.00"/>
        <vehicle id="StoN_3" x="119.75" y="6.92" angle="0.00" type="type1" speed="10.01" pos="6.92" lane="3i_1" slope="0.00"/>
        <vehicle id="StoW_5" x="116.25" y="8.76" angle="0.00" type="type1" speed="13.71" pos="8.76" lane="3i_2" slope="0.00"/>
        <vehicle id="WtoE_0" x="6.68" y="109.25" angle="90.00" type="type1" speed="9.41" pos="6.68" lane="1i_1" slope="0.00"/>
        <vehicle id="WtoN_6" x="6.81" y="112.75" angle="90.00" type="type1" speed="9.33" pos="6.81" lane="1i_2" slope="0.00"/>
        <vehicle id="WtoS_9" x="8.44" y="105.75" angle="90.00" type="type1" speed="13.79" pos="8.44" lane="1i_0" slope="0.00"/>
    </timestep>
    <timestep time="0.50">
        <vehicle id="EtoN_8" x="219.33" y="123.25" angle="270.00" type="type1" speed="13.73" pos="9.67" lane="2i_0" slope="0.00"/>
        <vehicle id="EtoS_4" x="222.45" y="116.25" angle="270.00" type="type1" speed="7.50" pos="6.55" lane="2i_2" slope="0.00"/>
        <vehicle id="EtoW_1" x="221.49" y="119.75" angle="270.00" type="type1" speed="9.42" pos="7.51" lane="2i_1" slope="0.00"/>
        <vehicle id="NtoE_7" x="112.75" y="217.41" angle="180.00" type="type1" speed="16.99" pos="11.59" lane="4i_2" slope="0.00"/>
        <vehicle id="NtoS_2" x="109.25" y="218.03" angle="180.00" type="type2" speed="15.14" pos="10.97" lane="4i_1" slope="0.00"/>
        <vehicle id="NtoW_10" x="105.75" y="217.42" angle="180.00" type="type1" speed="17.00" pos="11.58" lane="4i_0" slope="0.00"/>
        <vehicle id="StoE_11" x="123.25" y="11.00" angle="0.00" type="type1" speed="16.40" pos="11.00" lane="3i_0" slope="0.00"/>
        <vehicle id="StoN_3" x="119.75" y="7.95" angle="0.00" type="type1" speed="10.30" pos="7.95" lane="3i_1" slope="0.00"/>
        <vehicle id="StoW_5" x="116.25" y="10.10" angle="0.00" type="type1" speed="13.41" pos="10.10" lane="3i_2" slope="0.00"/>
        <vehicle id="WtoE_0" x="7.65" y="109.25" angle="90.00" type="type1" speed="9.71" pos="7.65" lane="1i_1" slope="0.00"/>
        <vehicle id="WtoN_6" x="7.74" y="112.75" angle="90.00" type="type1" speed="9.33" pos="7.74" lane="1i_2" slope="0.00"/>
        <vehicle id="WtoS_9" x="9.85" y="105.75" angle="90.00" type="type1" speed="14.08" pos="9.85" lane="1i_0" slope="0.00"/>
    </timestep>
    <timestep time="0.60">
        <vehicle id="EtoN_8" x="217.93" y="123.25" angle="270.00" type="type1" speed="14.03" pos="11.07" lane="2i_0" slope="0.00"/>
        <vehicle id="EtoS_4" x="221.67" y="116.25" angle="270.00" type="type1" speed="7.79" pos="7.33" lane="2i_2" slope="0.00"/>
        <vehicle id="EtoW_1" x="220.52" y="119.75" angle="270.00" type="type1" speed="9.73" pos="8.48" lane="2i_1" slope="0.00"/>
        <vehicle id="NtoE_7" x="112.75" y="215.71" angle="180.00" type="type1" speed="16.99" pos="13.29" lane="4i_2" slope="0.00"/>
        <vehicle id="NtoS_2" x="109.25" y="216.55" angle="180.00" type="type2" speed="14.83" pos="12.45" lane="4i_1" slope="0.00"/>
        <vehicle id="NtoW_10" x="105.75" y="215.72" angle="180.00" type="type1" speed="17.00" pos="13.28" lane="4i_0" slope="0.00"/>
        <vehicle id="StoE_11" x="123.25" y="12.67" angle="0.00" type="type1" speed="16.70" pos="12.67" lane="3i_0" slope="0.00"/>
        <vehicle id="StoN_3" x="119.75" y="9.01" angle="0.00" type="type1" speed="10.60" pos="9.01" lane="3i_1" slope="0.00"/>
        <vehicle id="StoW_5" x="116.25" y="11.42" angle="0.00" type="type1" speed="13.12" pos="11.42" lane="3i_2" slope="0.00"/>
        <vehicle id="WtoE_0" x="8.65" y="109.25" angle="90.00" type="type1" speed="10.02" pos="8.65" lane="1i_1" slope="0.00"/>
        <vehicle id="WtoN_6" x="8.68" y="112.75" angle="90.00" type="type1" speed="9.33" pos="8.68" lane="1i_2" slope="0.00"/>
        <vehicle id="WtoS_9" x="11.29" y="105.75" angle="90.00" type="type1" speed="14.37" pos="11.29" lane="1i_0" slope="0.00"/>
    </timestep>
    <timestep time="0.70">
        <vehicle id="EtoN_8" x="216.50" y="123.25" angle="270.00" type="type1" speed="14.33" pos="12.50" lane="2i_0" slope="0.00"/>
        <vehicle id="EtoS_4" x="220.86" y="116.25" angle="270.00" type="type1" speed="8.09" pos="8.14" lane="2i_2" slope="0.00"/>
        <vehicle id="EtoW_1" x="219.51" y="119.75" angle="270.00" type="type1" speed="10.03" pos="9.49" lane="2i_1" slope="0.00"/>
        <vehicle id="NtoE_7" x="112.75" y="214.01" angle="180.00" type="type1" speed="16.99" pos="14.99" lane="4i_2" slope="0.00"/>
        <vehicle id="NtoS_2" x="109.25" y="215.09" angle="180.00" type="type2" speed="14.53" pos="13.91" lane="4i_1" slope="0.00"/>
        <vehicle id="NtoW_10" x="105.75" y="214.02" angle="180.00" type="type1" speed="17.00" pos="14.98" lane="4i_0" slope="0.00"/>
        <vehicle id="StoE_11" x="123.25" y="14.37" angle="0.00" type="type1" speed="17.00" pos="14.37" lane="3i_0" slope="0.00"/>
        <vehicle id="StoN_3" x="119.75" y="10.10" angle="0.00" type="type1" speed="10.90" pos="10.10" lane="3i_1" slope="0.00"/>
        <vehicle id="StoW_5" x="116.25" y="12.70" angle="0.00" type="type1" speed="12.82" pos="12.70" lane="3i_2" slope="0.00"/>
        <vehicle id="WtoE_0" x="9.69" y="109.25" angle="90.00" type="type1" speed="10.32" pos="9.69" lane="1i_1" slope="0.00"/>
        <vehicle id="WtoN_6" x="9.61" y="112.75" angle="90.00" type="type1" speed="9.33" pos="9.61" lane="1i_2" slope="0.00"/>
        <vehicle id="WtoS_9" x="12.75" y="105.75" angle="90.00" type="type1" speed="14.66" pos="12.75" lane="1i_0" slope="0.00"/>
    </timestep>
    <timestep time="0.80">
        <vehicle id="EtoN_8" x="215.03" y="123.25" angle="270.00" type="type1" speed="14.62" pos="13.97" lane="2i_0" slope="0.00"/>
        <vehicle id="EtoS_4" x="220.02" y="116.25" angle="270.00" type="type1" speed="8.38" pos="8.98" lane="2i_2" slope="0.00"/>
        <vehicle id="EtoW_1" x="218.48" y="119.75" angle="270.00" type="type1" speed="10.33" pos="10.52" lane="2i_1" slope="0.00"/>
        <vehicle id="NtoE_7" x="112.75" y="212.31" angle="180.00" type="type1" speed="16.99" pos="16.69" lane="4i_2" slope="0.00"/>
        <vehicle id="NtoS_2" x="109.25" y="213.67" angle="180.00" type="type2" speed="14.23" pos="15.33" lane="4i_1" slope="0.00"/>
        <vehicle id="NtoW_10" x="105.75" y="212.32" angle="180.00" type="type1" speed="17.00" pos="16.68" lane="4i_0" slope="0.00"/>
        <vehicle id="StoE_11" x="123.25" y="16.07" angle="0.00" type="type1" speed="17.00" pos="16.07" lane="3i_0" slope="0.00"/>
        <vehicle id="StoN_3" x="119.75" y="11.22" angle="0.00" type="type1" speed="11.20" pos="11.22" lane="3i_1" slope="0.00"/>
        <vehicle id="StoW_5" x="116.25" y="13.95" angle="0.00" type="type1" speed="12.52" pos="13.95" lane="3i_2" slope="0.00"/>
        <vehicle id="WtoE_0" x="10.75" y="109.25" angle="90.00" type="type1" speed="10.62" pos="10.75" lane="1i_1" slope="0.00"/>
        <vehicle id="WtoN_6" x="10.54" y="112.75" angle="90.00" type="type1" speed="9.33" pos="10.54" lane="1i_2" slope="0.00"/>
        <vehicle id="WtoS_9" x="14.25" y="105.75" angle="90.00" type="type1" speed="14.96" pos="14.25" lane="1i_0" slope="0.00"/>
    </timestep>
    <timestep time="0.90">
        <vehicle id="EtoN_8" x="213.54" y="123.25" angle="270.00" type="type1" speed="14.92" pos="15.46" lane="2i_0" slope="0.00"/>
        <vehicle id="EtoS_4" x="219.15" y="116.25" angle="270.00" type="type1" speed="8.67" pos="9.85" lane="2i_2" slope="0.00"/>
        <vehicle id="EtoW_1" x="217.42" y="119.75" angle="270.00" type="type1" speed="10.64" pos="11.58" lane="2i_1" slope="0.00"/>
        <vehicle id="NtoE_7" x="112.75" y="210.61" angle="180.00" type="type1" speed="16.99" pos="18.39" lane="4i_2" slope="0.00"/>
        <vehicle id="NtoS_2" x="109.25" y="212.28" angle="180.00" type="type2" speed="13.93" pos="16.72" lane="4i_1" slope="0.00"/>
        <vehicle id="NtoW_10" x="105.75" y="210.62" angle="180.00" type="type1" speed="17.00" pos="18.38" lane="4i_0" slope="0.00"/>
        <vehicle id="StoE_11" x="123.25" y="17.77" angle="0.00" type="type1" speed="17.00" pos="17.77" lane="3i_0" slope="0.00"/>
        <vehicle id="StoN_3" x="119.75" y="12.37" angle="0.00" type="type1" speed="11.50" pos="12.37" lane="3i_1" slope="0.00"/>
        <vehicle id="StoW_5" x="116.25" y="15.17" angle="0.00" type="type1" speed="12.22" pos="15.17" lane="3i_2" slope="0.00"/>
        <vehicle id="WtoE_0" x="11.84" y="109.25" angle="90.00" type="type1" speed="10.93" pos="11.84" lane="1i_1" slope="0.00"/>
        <vehicle id="WtoN_6" x="11.48" y="112.75" angle="90.00" type="type1" speed="9.33" pos="11.48" lane="1i_2" slope="0.00"/>
        <vehicle id="WtoS_9" x="15.77" y="105.75" angle="90.00" type="type1" speed="15.25" pos="15.77" lane="1i_0" slope="0.00"/>
    </timestep>
    <timestep time="1.00">
        <vehicle id="EtoN_20" x="225.90" y="123.25" angle="270.00" type="type1" speed="13.35" pos="3.10" lane="2i_0" slope="0.00"/>
        <vehicle id="EtoN_8" x="212.02" y="123.25" angle="270.00" type="type1" speed="15.22" pos="16.98" lane="2i_0" slope="0.00"/>
        <vehicle id="EtoS_4" x="218.26" y="116.25" angle="270.00" type="type1" speed="8.97" pos="10.74" lane="2i_2" slope="0.00"/>
        <vehicle id="EtoW_1" x="216.32" y="119.75" angle="270.00" type="type1" speed="10.94" pos="12.68" lane="2i_1" slope="0.00"/>
        <vehicle id="EtoW_13" x="225.90" y="119.75" angle="270.00" type="type1" speed="7.73" pos="3.10" lane="2i_1" slope="0.00"/>
        <vehicle id="NtoE_19" x="112.75" y="225.90" angle="180.00" type="type1" speed="9.94" pos="3.10" lane="4i_2" slope="0.00"/>
        <vehicle id="NtoE_7" x="112.75" y="208.91" angle="180.00" type="type1" speed="16.99" pos="20.09" lane="4i_2" slope="0.00"/>
        <vehicle id="NtoS_2" x="109.25" y="210.92" angle="180.00" type="type2" speed="13.63" pos="18.08" lane="4i_1" slope="0.00"/>
        <vehicle id="NtoW_10" x="105.75" y="208.92" angle="180.00" type="type1" speed="17.00" pos="20.08" lane="4i_0" slope="0.00"/>
        <vehicle id="StoE_11" x="123.25" y="19.47" angle="0.00" type="type1" speed="17.00" pos="19.47" lane="3i_0" slope="0.00"/>
        <vehicle id="StoE_23" x="123.25" y="3.10" angle="0.00" type="type1" speed="15.65" pos="3.10" lane="3i_0" slope="0.00"/>
        <vehicle id="StoN_15" x="119.75" y="3.10" angle="0.00" type="type1" speed="6.27" pos="3.10" lane="3i_1" slope="0.00"/>
        <vehicle id="StoN_3" x="119.75" y="13.55" angle="0.00" type="type1" speed="11.80" pos="13.55" lane="3i_1" slope="0.00"/>
        <vehicle id="StoW_17" x="116.25" y="3.10" angle="0.00" type="type1" speed="10.52" pos="3.10" lane="3i_2" slope="0.00"/>
        <vehicle id="StoW_5" x="116.25" y="16.36" angle="0.00" type="type1" speed="11.92" pos="16.36" lane="3i_2" slope="0.00"/>
        <vehicle id="WtoE_0" x="12.96" y="109.25" angle="90.00" type="type1" speed="11.23" pos="12.96" lane="1i_1" slope="0.00"/>
        <vehicle id="WtoN_18" x="3.10" y="112.75" angle="90.00" type="type1" speed="7.51" pos="3.10" lane="1i_2" slope="0.00"/>
        <vehicle id="WtoN_6" x="12.41" y="112.75" angle="90.00" type="type1" speed="9.33" pos="12.41" lane="1i_2" slope="0.00"/>
        <vehicle id="WtoS_9" x="17.33" y="105.75" angle="90.00" type="type1" speed="15.54" pos="17.33" lane="1i_0" slope="0.00"/>
    </timestep>
    <timestep time="1.10">
        <vehicle id="EtoN_20" x="224.53" y="123.25" angle="270.00" type="type1" speed="13.66" pos="4.47" lane="2i_0" slope="0.00"/>
        <vehicle id="EtoN_8" x="210.47" y="123.25" angle="270.00" type="type1" speed="15.51" pos="18.53" lane="2i_0" slope="0.00"/>
        <vehicle id="EtoS_16" x="225.90" y="116.25" angle="270.00" type="type1" speed="8.25" pos="3.10" lane="2i_2" slope="0.00"/>
        <vehicle id="EtoS_4" x="217.33" y="116.25" angle="270.00" type="type1" speed="9.26" pos="11.67" lane="2i_2" slope="0.00"/>
        <vehicle id="EtoW_1" x="215.20" y="119.75" angle="270.00" type="type1" speed="11.24" pos="13.80" lane="2i_1" slope="0.00"/>
        <vehicle id="EtoW_13" x="225.10" y="119.75" angle="270.00" type="type1" speed="8.03" pos="3.90" lane="2i_1" slope="0.00"/>
        <vehicle id="NtoE_19" x="112.75" y="224.93" angle="180.00" type="type1" speed="9.66" pos="4.07" lane="4i_2" slope="0.00"/>
        <vehicle id="NtoE_7" x="112.75" y="207.21" angle="180.00" type="type1" speed="16.99" pos="21.79" lane="4i_2" slope="0.00"/>
        <vehicle id="NtoS_2" x="109.25" y="209.58" angle="180.00" type="type2" speed="13.32" pos="19.42" lane="4i_1" slope="0.00"/>
        <vehicle id="NtoW_10" x="105.75" y="207.22" angle="180.00" type="type1" speed="17.00" pos="21.78" lane="4i_0" slope="0.00"/>
        <vehicle id="NtoW_22" x="105.75" y="225.90" angle="180.00" type="type1" speed="16.60" pos="3.10" lane="4i_0" slope="0.00"/>
        <vehicle id="StoE_11" x="123.25" y="21.17" angle="0.00" type="type1" speed="17.00" pos="21.17" lane="3i_0" slope="0.00"/>
        <vehicle id="StoE_23" x="123.25" y="4.70" angle="0.00" type="type1" speed="15.99" pos="4.70" lane="3i_0" slope="0.00"/>
        <vehicle id="StoN_15" x="119.75" y="3.76" angle="0.00" type="type1" speed="6.58" pos="3.76" lane="3i_1" slope="0.00"/>
        <vehicle id="StoN_3" x="119.75" y="14.76" angle="0.00" type="type1" speed="12.10" pos="14.76" lane="3i_1" slope="0.00"/>
        <vehicle id="StoW_17" x="116.25" y="4.11" angle="0.00" type="type1" speed="10.08" pos="4.11" lane="3i_2" slope="0.00"/>
        <vehicle id="StoW_5" x="116.25" y="17.53" angle="0.00" type="type1" speed="11.63" pos="17.53" lane="3i_2" slope="0.00"/>
        <vehicle id="WtoE_0" x="14.12" y="109.25" angle="90.00" type="type1" speed="11.53" pos="14.12" lane="1i_1" slope="0.00"/>
        <vehicle id="WtoN_18" x="3.88" y="112.75" angle="90.00" type="type1" speed="7.81" pos="3.88" lane="1i_2" slope="0.00"/>
        <vehicle id="WtoN_6" x="13.34" y="112.75" angle="90.00" type="type1" speed="9.33" pos="13.34" lane="1i_2" slope="0.00"/>
        <vehicle id="WtoS_21" x="3.10" y="105.75" angle="90.00" type="type1" speed="15.24" pos="3.10" lane="1i_0" slope="0.00"/>
        <vehicle id="WtoS_9" x="18.91" y="105.75" angle="90.00" type="type1" speed="15.83" pos="18.91" lane="1i_0" slope="0.00"/>
    </timestep>
    <timestep time="1.20">
        <vehicle id="EtoN_20" x="223.14" y="123.25" angle="270.00" type="type1" speed="13.96" pos="5.86" lane="2i_0" slope="0.00"/>
        <vehicle id="EtoN_8" x="208.89" y="123.25" angle="270.00" type="type1" speed="15.81" pos="20.11" lane="2i_0" slope="0.00"/>
        <vehicle id="EtoS_16" x="225.10" y="116.25" angle="270.00" type="type1" speed="7.99" pos="3.90" lane="2i_2" slope="0.00"/>
        <vehicle id="EtoS_4" x="216.37" y="116.25" angle="270.00" type="type1" speed="9.56" pos="12.63" lane="2i_2" slope="0.00"/>
        <vehicle id="EtoW_1" x="214.04" y="119.75" angle="270.00" type="type1" speed="11.55" pos="14.96" lane="2i_1" slope="0.00"/>
        <vehicle id="EtoW_13" x="224.26" y="119.75" angle="270.00" type="type1" speed="8.33" pos="4.74" lane="2i_1" slope="0.00"/>
        <vehicle id="NtoE_19" x="112.75" y="224.00" angle="180.00" type="type1" speed="9.38" pos="5.00" lane="4i_2" slope="0.00"/>
        <vehicle id="NtoE_7" x="112.75" y="205.51" angle="180.00" type="type1" speed="16.99" pos="23.49" lane="4i_2" slope="0.00"/>
        <vehicle id="NtoS_2" x="109.25" y="208.28" angle="180.00" type="type2" speed="13.02" pos="20.72" lane="4i_1" slope="0.00"/>
        <vehicle id="NtoW_10" x="105.75" y="205.52" angle="180.00" type="type1" speed="17.00" pos="23.48" lane="4i_0" slope="0.00"/>
        <vehicle id="NtoW_22" x="105.75" y="224.20" angle="180.00" type="type1" speed="17.00" pos="4.80" lane="4i_0" slope="0.00"/>
        <vehicle id="StoE_11" x="123.25" y="22.87" angle="0.00" type="type1" speed="17.00" pos="22.87" lane="3i_0" slope="0.00"/>
        <vehicle id="StoE_23" x="123.25" y="6.33" angle="0.00" type="type1" speed="16.33" pos="6.33" lane="3i_0" slope="0.00"/>
        <vehicle id="StoN_15" x="119.75" y="4.45" angle="0.00" type="type1" speed="6.89" pos="4.45" lane="3i_1" slope="0.00"/>
        <vehicle id="StoN_3" x="119.75" y="16.00" angle="0.00" type="type1" speed="12.40" pos="16.00" lane="3i_1" slope="0.00"/>
        <vehicle id="StoW_17" x="116.25" y="5.12" angle="0.00" type="type1" speed="10.08" pos="5.12" lane="3i_2" slope="0.00"/>
        <vehicle id="StoW_5" x="116.25" y="18.66" angle="0.00" type="type1" speed="11.33" pos="18.66" lane="3i_2" slope="0.00"/>
        <vehicle id="WtoE_0" x="15.30" y="109.25" angle="90.00" type="type1" speed="11.84" pos="15.30" lane="1i_1" slope="0.00"/>
        <vehicle id="WtoN_18" x="4.69" y="112.75" angle="90.00" type="type1" speed="8.11" pos="4.69" lane="1i_2" slope="0.00"/>
        <vehicle id="WtoN_6" x="14.28" y="112.75" angle="90.00" type="type1" speed="9.33" pos="14.28" lane="1i_2" slope="0.00"/>
        <vehicle id="WtoS_21" x="4.65" y="105.75" angle="90.00" type="type1" speed="15.53" pos="4.65" lane="1i_0" slope="0.00"/>
        <vehicle id="WtoS_9" x="20.52" y="105.75" angle="90.00" type="type1" speed="16.12" pos="20.52" lane="1i_0" slope="0.00"/>
    </timestep>
    <timestep time="1.30">
        <vehicle id="EtoN_20" x="221.71" y="123.25" angle="270.00" type="type1" speed="14.26" pos="7.29" lane="2i_0" slope="0.00"/>
        <vehicle id="EtoN_8" x="207.28" y="123.25" angle="270.00" type="type1" speed="16.11" pos="21.72" lane="2i_0" slope="0.00"/>
        <vehicle id="EtoS_16" x="224.33" y="116.25" angle="270.00" type="type1" speed="7.72" pos="4.67" lane="2i_2" slope="0.00"/>
        <vehicle id="EtoS_4" x="215.39" y="116.25" angle="270.00" type="type1" speed="9.85" pos="13.61" lane="2i_2" slope="0.00"/>
        <vehicle id="EtoW_1" x="212.86" y="119.75" angle="270.00" type="type1" speed="11.85" pos="16.14" lane="2i_1" slope="0.00"/>
        <vehicle id="EtoW_13" x="223.40" y="119.75" angle="270.00" type="type1" speed="8.63" pos="5.60" lane="2i_1" slope="0.00"/>
        <vehicle id="NtoE_19" x="112.75" y="223.09" angle="180.00" type="type1" speed="9.10" pos="5.91" lane="4i_2" slope="0.00"/>
        <vehicle id="NtoE_7" x="112.75" y="203.81" angle="180.00" type="type1" speed="16.99" pos="25.19" lane="4i_2" slope="0.00"/>
        <vehicle id="NtoS_2" x="109.25" y="207.01" angle="180.00" type="type2" speed="12.72" pos="21.99" lane="4i_1" slope="0.00"/>
        <vehicle id="NtoW_10" x="105.75" y="203.82" angle="180.00" type="type1" speed="17.00" pos="25.18" lane="4i_0" slope="0.00"/>
        <vehicle id="NtoW_22" x="105.75" y="222.50" angle="180.00" type="type1" speed="17.00" pos="6.50" lane="4i_0" slope="0.00"/>
        <vehicle id="StoE_11" x="123.25" y="24.57" angle="0.00" type="type1" speed="17.00" pos="24.57" lane="3i_0" slope="0.00"/>
        <vehicle id="StoE_23" x="123.25" y="8.00" angle="0.00" type="type1" speed="16.66" pos="8.00" lane="3i_0" slope="0.00"/>
        <vehicle id="StoN_15" x="119.75" y="5.17" angle="0.00" type="type1" speed="7.19" pos="5.17" lane="3i_1" slope="0.00"/>
        <vehicle id="StoN_3" x="119.75" y="17.27" angle="0.00" type="type1" speed="12.70" pos="17.27" lane="3i_1" slope="0.00"/>
        <vehicle id="StoW_17" x="116.25" y="6.12" angle="0.00" type="type1" speed="10.08" pos="6.12" lane="3i_2" slope="0.00"/>
        <vehicle id="StoW_5" x="116.25" y="19.76" angle="0.00" type="type1" speed="11.03" pos="19.76" lane="3i_2" slope="0.00"/>
        <vehicle id="WtoE_0" x="16.52" y="109.25" angle="90.00" type="type1" speed="12.14" pos="16.52" lane="1i_1" slope="0.00"/>
        <vehicle id="WtoN_18" x="5.53" y="112.75" angle="90.00" type="type1" speed="8.41" pos="5.53" lane="1i_2" slope="0.00"/>
        <vehicle id="WtoN_6" x="15.21" y="112.75" angle="90.00" type="type1" speed="9.33" pos="15.21" lane="1i_2" slope="0.00"/>
        <vehicle id="WtoS_21" x="6.24" y="105.75" angle="90.00" type="type1" speed="15.83" pos="6.24" lane="1i_0" slope="0.00"/>
        <vehicle id="WtoS_9" x="22.16" y="105.75" angle="90.00" type="type1" speed="16.42" pos="22.16" lane="1i_0" slope="0.00"/>
    </timestep>
    <timestep time="1.40">
        <vehicle id="EtoN_20" x="220.26" y="123.25" angle="270.00" type="type1" speed="14.57" pos="8.74" lane="2i_0" slope="0.00"/>
        <vehicle id="EtoN_8" x="205.64" y="123.25" angle="270.00" type="type1" speed="16.41" pos="23.36" lane="2i_0" slope="0.00"/>
        <vehicle id="EtoS_16" x="223.58" y="116.25" angle="270.00" type="type1" speed="7.46" pos="5.42" lane="2i_2" slope="0.00"/>
        <vehicle id="EtoS_4" x="214.37" y="116.25" angle="270.00" type="type1" speed="10.15" pos="14.63" lane="2i_2" slope="0.00"/>
        <vehicle id="EtoW_1" x="211.64" y="119.75" angle="270.00" type="type1" speed="12.15" pos="17.36" lane="2i_1" slope="0.00"/>
        <vehicle id="EtoW_13" x="222.51" y="119.75" angle="270.00" type="type1" speed="8.94" pos="6.49" lane="2i_1" slope="0.00"/>
        <vehicle id="NtoE_19" x="112.75" y="222.20" angle="180.00" type="type1" speed="8.82" pos="6.80" lane="4i_2" slope="0.00"/>
        <vehicle id="NtoE_7" x="112.75" y="202.11" angle="180.00" type="type1" speed="16.99" pos="26.89" lane="4i_2" slope="0.00"/>
        <vehicle id="NtoS_2" x="109.25" y="205.77" angle="180.00" type="type2" speed="12.42" pos="23.23" lane="4i_1" slope="0.00"/>
        <vehicle id="NtoW_10" x="105.75" y="202.12" angle="180.00" type="type1" speed="17.00" pos="26.88" lane="4i_0" slope="0.00"/>
        <vehicle id="NtoW_22" x="105.75" y="220.80" angle="180.00" type="type1" speed="17.00" pos="8.20" lane="4i_0" slope="0.00"/>
        <vehicle id="StoE_11" x="123.25" y="26.27" angle="0.00" type="type1" speed="17.00" pos="26.27" lane="3i_0" slope="0.00"/>
        <vehicle id="StoE_23" x="123.25" y="9.70" angle="0.00" type="type1" speed="17.00" pos="9.70" lane="3i_0" slope="0.00"/>